107
Lattice="19.95889459992929 0.0 0.0 0.0 17.399717259442962 0.0 0.0 0.0 18.01753703" Properties=species:S:1:pos:R:3:momenta:R:3:magmoms:R:1 energy=-620.6821572246353 free_energy=-620.6821572246353 dipole="-9.806063931747781 -55.03124639321393 0.0005944544035408083" magmom=0.0 pbc="T T F"
W       19.82497938      16.99972328       9.06272035      -7.64322957       0.03329747      -0.87742606       0.00000000
Se       1.61663737       0.77682075      10.67888217      -0.73089570       3.29949155      -0.45103485       0.00000000
Se       1.69525776       0.85840678       7.63559814      -1.62190433       0.41256226       1.72822139       0.00000000
W        1.67282124       2.75797884       9.18001585       0.17423142       3.24340969      -1.97722614       0.00000000
Se      19.87462751       3.84565446      10.67935362      -1.50119172       2.36431984      -1.66203785       0.00000000
Se       0.10049754       3.68900753       7.44162092      -0.81872356       2.82470090      -0.91835627       0.00000000
W       19.82968352       5.67958059       9.03116461       0.27625382      -0.64779775       3.52217015       0.00000000
Se       1.65101921       6.56126572      10.60545030      -3.87545955      -1.32194220       2.69224868       0.00000000
Se       1.64677116       6.68649415       7.40784074       0.62568406      -2.34755301       2.99175910       0.00000000
W        1.50390800       8.58048998       9.00946351       3.49566229      -1.48524693      -2.52069925       0.00000000
Se      19.89803615       9.55565488      10.70369064      -2.85725052       1.66495320      -1.00283653       0.00000000
Se      19.81711874       9.71397861       7.26114455       1.00365045      -0.83083917       2.73106099       0.00000000
W        0.07497684      11.42228795       9.04431275      -7.61726427       1.86751762      -2.68141353       0.00000000
Se       1.63423806      12.42646244      10.75283672       1.46163980      -0.64418540      -1.77356021       0.00000000
Se       1.65370591      12.44525189       7.32136936       1.03120614      -2.51810656       1.47882215       0.00000000
W        1.51988781      14.20131211       9.09088275       0.27159307      -0.60215177      -7.93948966       0.00000000
Se      19.81181498      15.22554689      10.76547054      -0.38419619      -2.67006363       2.33610639       0.00000000
Se       0.03984385      15.23771536       7.20775512      -0.97291151       0.95718482       3.54996387       0.00000000
W        3.47014869      17.25257866       9.20068434       0.85439863       1.50919298       1.74005782       0.00000000
Se       4.93050882       0.96318101      11.01753703      -1.73570774       2.43527176       0.47475911       0.00000000
Se       5.12162103       0.84660690       7.19886522       2.63445411      -0.62960571       3.08501218       0.00000000
W        4.84789207       2.58361979       9.09653135      -9.51136594      -2.52291920       7.60313877       0.00000000
Se       3.40331417       3.90179762      10.76454151      -3.91734081       1.02272215      -0.57617511       0.00000000
Se       3.37628358       3.71132323       7.37568030      -1.61590808      -0.96051802      -0.68589376       0.00000000
W        3.48698837       5.73687178       8.98491414      -3.51589426      -0.53167434      -2.73338518       0.00000000
Se       4.89020236       6.63001651      10.79357106       2.00673432       0.78178927      -3.09215431       0.00000000
Se       4.92810929       6.71516410       7.20129981      -0.92437020       0.42498781       2.20543877       0.00000000
W        4.72114234       8.45443138       9.00062012       0.62590930      -0.45534737      -5.06047269       0.00000000
Se       3.22688433       9.56982826      10.65631879      -1.79512677       0.78369424       3.20990827       0.00000000
Se       3.20093310       9.51728245       7.25205727       2.19135998       1.42775793       0.42704000       0.00000000
W        3.31870110      11.45843730       8.86248398       6.48572441      -0.86822807      -4.47421442       0.00000000
Se       4.99584040      12.23148952      10.55805064      -0.84539772       1.03871730      -1.09296938       0.00000000
Se       5.01659862      12.38763637       7.14921061      -0.04942991       1.23305303      -0.75110844       0.00000000
W        5.08718596      14.30644527       8.97361584      -6.46574737      -2.77285759       0.43114539       0.00000000
Se       3.31768189      15.21156112      10.70896700      -1.39662150       0.82538119       0.27654470       0.00000000
Se       3.25672735      15.28847346       7.49550676      -1.21917723      -1.44929618      -0.07883196       0.00000000
W        6.44352256      17.23412530       9.23485145       3.54682642       3.05117798      -0.94891495       0.00000000
Se       8.32046459       0.85178975      10.63250502      -1.82183089       1.26688548      -1.03319575       0.00000000
Se       8.29416841       0.68775578       7.50037287       2.88293447       0.75218491      -1.85217525       0.00000000
W        8.45387666       2.66515126       9.05425883       2.83479824      -2.30671667      -4.08434339       0.00000000
Se       6.74858944       3.57690756      10.74142511       1.48476712      -4.90571453       0.37430556       0.00000000
Se       6.60897977       3.58016796       7.49233458      -2.76089415      -1.81840801       0.53364226       0.00000000
W        6.36661758       5.76182050       9.06686590       3.00610751      -2.43215604       0.43587098       0.00000000
Se       8.44750830       6.74702778      10.51003535       1.44393266      -1.03552193      -2.95225000       0.00000000
Se       8.22509845       6.60056482       7.34059913      -2.96713229       2.24352057       0.90194226       0.00000000
W        8.49025747       8.61078870       8.87471236      -6.84560277       7.69662575       2.71525772       0.00000000
Se       6.61594954       9.47466246      10.51681955       0.11668005      -0.70776981      -0.64740447       0.00000000
Se       6.52786471       9.45608144       7.33656218       3.39713788      -0.34502580       0.81429117       0.00000000
W        6.70283296      11.57428251       8.83450557      -2.01689125       6.05586123       6.88347368       0.00000000
Se       8.34525859      12.29219761      10.63821327      -1.61847076      -0.86229469      -2.28765267       0.00000000
Se       8.40730495      12.60315693       7.18909218      -3.39892413      -0.83279390      -0.25068437       0.00000000
W        8.38975496      14.25293179       9.00150387      -2.11345674      -2.81448551       0.44623017       0.00000000
Se       6.77497689      15.20958918      10.77057417      -0.06273020       4.30316971       0.13433878       0.00000000
Se       6.71696789      15.36209980       7.36117125      -4.68175823      -1.02763886       3.73351807       0.00000000
W       10.11869416      17.33092999       9.02644343      -0.67753096       1.50529999       3.28753048       0.00000000
Se      11.78502003       0.80609371      10.77414627      -0.67714156      -3.64907555      -3.69202684       0.00000000
Se      11.71283661       0.77237164       7.24957323      -0.39121672      -2.55944342       2.27604596       0.00000000
W       11.42939979       2.67401935       8.92338663       4.50834752      -0.15558267      -0.95023561       0.00000000
Se       9.97965914       3.82752351      10.67854993       4.69530902       3.43329476      -2.43984516       0.00000000
Se       9.88496859       3.65365896       7.15539957       0.46481480       2.99850358       0.83643825       0.00000000
W       10.00976810       5.47353059       8.80748568       2.29460975      -2.69242432      -0.52253482       0.00000000
Se      11.65397718       6.66154762      10.50638229       1.05524028       1.20430095      -1.11427480       0.00000000
Se      11.60353843       6.65879499       7.09663939       2.59948749      -0.02497943      -0.91508597       0.00000000
W       11.70419230       8.60932283       8.82111043      -4.52942466       0.70708607      -0.69113006       0.00000000
Se      10.09247921       9.53938428      10.56690132       0.40161100       0.49243616      -3.30956490       0.00000000
Se      10.03271109       9.59818072       7.15583463       2.12454276       1.61192733      -2.38874597       0.00000000
W        9.87764921      11.48533491       8.95340502      -1.91084732      -4.69036183      -1.75839700       0.00000000
Se      11.85660406      12.40299848      10.51213707       2.23204203      -2.19717541       0.72163903       0.00000000
Se      11.59902675      12.42435425       7.24201681      -1.52169392      -1.95727953       1.29545116       0.00000000
W       11.75202282      14.43409380       8.93353048       2.52731601      -1.28948479      -4.42813864       0.00000000
Se       9.99252678      15.39434053      10.71364003       3.56553675       2.31023187      -3.39175232       0.00000000
Se      10.11407858      15.29727649       7.33143670       0.36895551       0.15029389       0.13824798       0.00000000
W       13.26125583      17.12547650       8.88878323       4.06680033      -4.23654410      -3.51849156       0.00000000
Se      14.93610543       0.77974191      10.52335939       1.78718113       2.35106651       0.52759038       0.00000000
Se      14.91375307       0.72505916       7.41252654       0.73993321      -1.21868755      -2.80211680       0.00000000
W       15.08716496       2.95410946       8.98216847       0.43713959      -3.00050450      -6.56194199       0.00000000
Se      13.10777163       3.72186754      10.54915889       3.31725557       1.06360621      -0.62369860       0.00000000
Se      13.25817958       3.58026997       7.34463670       0.15058081      -2.07826849       0.14944240       0.00000000
W       13.23892710       5.60919816       8.90763222       0.48543555      -6.98445238      -2.95268373       0.00000000
Se      14.91000004       6.70492537      10.44669632      -0.21149037      -3.03842333      -1.38776521       0.00000000
Se      14.98903571       6.58336166       7.28908743       3.15806051      -1.56401315      -0.01488161       0.00000000
W       14.94607602       8.61617586       8.82902148       0.86153840      -1.69364213       3.09195062       0.00000000
Se      13.30344641       9.47755004       7.02303591       3.07622909      -2.22115500       1.39430793       0.00000000
W       13.41692737      11.29714876       8.76160134       4.04111375       0.98322794       1.25842500       0.00000000
Se      14.99776955      12.37111026      10.64136118      -1.15203943      -0.23041279       1.61670769       0.00000000
Se      15.07646848      12.27714214       7.00000000       4.06722752      -2.50762050      -1.02889801       0.00000000
W       14.93768591      14.23965316       8.84990733       3.98790109       1.70214503      -0.11028193       0.00000000
Se      13.47166483      15.21170549      10.69242305       3.17891032       1.02365708       0.18130888       0.00000000
Se      13.45814410      15.30704840       7.20000253      -1.75027542      -1.59612941       0.02849056       0.00000000
W       16.67119259      17.11260679       8.91724575       4.80042360       0.94660999       3.30529052       0.00000000
Se      18.43244570       0.86141829      10.68889235       0.24188332      -0.73847765       2.01915011       0.00000000
Se      18.37107255       0.75921581       7.30796540       2.10549072       0.06570152      -0.85809027       0.00000000
W       18.25228150       2.85551744       8.99692981      -3.14990460       4.45734585       1.94864998       0.00000000
Se      16.66846848       3.72344778      10.83831972      -1.76932566      -1.11098735       0.45118805       0.00000000
Se      16.71455152       3.56978532       7.10294164      -1.37751623      -0.54974294       0.26422952       0.00000000
W       16.57166074       5.36731739       8.93411601      -1.49424970      -5.14893329       4.25673032       0.00000000
Se      18.11995703       6.59232973      10.63068345       0.67331087      -2.05533669       1.28273782       0.00000000
Se      18.17843755       6.47041426       7.28888737       2.68219036       0.41046769       0.25919327       0.00000000
W       18.19663017       8.61273978       8.83051772      -3.33269441      -3.32663550      -0.59698277       0.00000000
Se      16.55920502       9.56184757      10.57869945       1.81888321      -2.10079875      -3.46562663       0.00000000
Se      16.50250944       9.34955238       7.13548822      -1.98403174       0.60911435      -0.27357285       0.00000000
W       16.51628428      11.22352987       8.83468250      -3.22769929       5.12524941      -0.07710492       0.00000000
Se      18.08991409      12.36551785      10.50013499      -4.09976166       1.47223652      -2.64300307       0.00000000
Se      18.40012240      12.43121397       7.27056009      -0.08385591      -0.21184788       0.92575855       0.00000000
W       18.33857036      14.43662751       8.93803456       4.60543387      -2.04836450      -2.03826534       0.00000000
Se      16.47800222      15.24117023      10.59760243       2.18336284       0.84403839       0.09849808       0.00000000
Se      16.61156952      15.16888768       7.28391540       2.49545940       2.66160078       2.16424021       0.00000000
